<?xml version="1.0" encoding="UTF-8" ?>
<psml version="1.1" energy_unit="hartree" length_unit="bohr"
 uuid="140c6d70-3b1a-11ec-7212-5269f9bf7de7"
 xmlns="http://esl.cecam.org/PSML/ns/1.1">
<provenance creator="ONCVPSP-3.3.1+psml-3.3.1-75 (scalar-relativistic)"
 date="2021-11-01">
<annotation action="semilocal-pseudopotential-generation"
 action-cont="projectors-generation" />
<input-file name="oncvpsp-input">
<![CDATA[# ATOM AND REFERENCE CONFIGURATION
# atsym, z, nc, nv, iexc   psfile
    Se  34.0   6   2   4   upf
#
# n, l, f  (nc+nv lines)
    1    0    2.0
    2    0    2.0
    2    1    6.0
    3    0    2.0
    3    1    6.0
    3    2   10.0
    4    0    2.0
    4    1    4.0
#
# PSEUDOPOTENTIAL AND OPTIMIZATION
# lmax
    2
#
# l, rc, ep, ncon, nbas, qcut  (lmax+1 lines, l's must be in order)
    0    2.90    0.00    5    8    4.50
    1    3.00    0.00    5    8    4.00
    2    3.10    0.10    5    8    4.00
#
# LOCAL POTENTIAL
# lloc, lpopt, rc(5), dvloc0
    4    3    2.8    0.0
#
# VANDERBILT-KLEINMAN-BYLANDER PROJECTORs
# l, nproj, debl  (lmax+1 lines, l's in order)
    0    2    1.00
    1    2    0.90
    2    2    0.90
#
# MODEL CORE CHARGE
# icmod, fcfact, rfact
    3    4.5134    1.3753
#
# LOG DERIVATIVE ANALYSIS
# epsh1, epsh2, depsh
   -2.0  2.0  0.02
#
# OUTPUT GRID
# rlmax, drl
    5.0  0.01
#
# TEST CONFIGURATIONS
# ncnf
    4
#
#   nvcnf (repeated ncnf times)
#   n, l, f  (nvcnf lines, repeated follwing nvcnf's ncnf times)
    2
    4    0    2.0
    4    1    3.0
#
    2
    4    0    2.0
    4    1    2.0
#
    2
    4    0    1.0
    4    1    4.0
#
    2
    4    0    1.0
    4    1    3.0
]]>
</input-file>
</provenance>
<pseudo-atom-spec atomic-label="Se" atomic-number="34" z-pseudo="6"
 flavor="Hamann&apos;s oncvpsp" relativity="scalar" spin-dft="no"
 core-corrections="yes">
<annotation pseudo-energy="-9.50373691989" cutoff_hint_low="8"
 cutoff_hint_normal="9" cutoff_hint_high="9" />
<exchange-correlation>
<annotation oncvpsp-xc-code="4" oncvpsp-xc-type="GGA -- Perdew-Burke-Ernzerhof" />
<libxc-info number-of-functionals="2">
<functional name="Perdew, Burke &amp; Ernzerhof (GGA)" type="exchange" id="101" />
<functional name="Perdew, Burke &amp; Ernzerhof (GGA)" type="correlation"
 id="130" />
</libxc-info>
</exchange-correlation>
<valence-configuration total-valence-charge="6">
<shell n="4" l="s" occupation="2" />
<shell n="4" l="p" occupation="4" />
</valence-configuration>
</pseudo-atom-spec>
<grid npts="457">
<annotation type="sampled from oncvpsp log grid"
 recipe="r(i:1..N) = r1*exp(a*(i-1)) + r=0; resampled"
 recipe-cont="r1: scale; a: step" scale="0.147058823529E-04"
 step="0.119285708653E-01" delta="0.500000000000E-02" rmax="43.9674944076" />
<grid-data>
  0.000000000000E+00  5.020670286226E-03  1.002839488868E-02  1.504419146530E-02
  2.027130297145E-02  2.542795312469E-02  3.077510917124E-02  3.593736782770E-02
  4.097622089294E-02  4.616757116937E-02  5.139982494270E-02  5.654650141804E-02
  6.220851581082E-02  6.762595753660E-02  7.264345683615E-02  7.803322885668E-02
  8.382289432527E-02  8.897443012385E-02  9.444256583582E-02  1.002467588636E-01
  1.064076624107E-01  1.116079041230E-01  1.170622864982E-01  1.227832296276E-01
  1.287837605838E-01  1.350775430848E-01  1.416789086070E-01  1.468407994265E-01
  1.521907571722E-01  1.577356338231E-01  1.634825310017E-01  1.694388090690E-01
  1.756120965512E-01  1.820102999105E-01  1.886416136706E-01  1.955145309126E-01
  2.026378541519E-01  2.100207066126E-01  2.150914465530E-01  2.202846144386E-01
  2.256031661696E-01  2.310501290136E-01  2.366286033285E-01  2.423417643273E-01
  2.481928638852E-01  2.541852323908E-01  2.603222806417E-01  2.666075017855E-01
  2.730444733086E-01  2.796368590722E-01  2.863884113976E-01  2.933029732024E-01
  3.003844801874E-01  3.076369630770E-01  3.150645499135E-01  3.226714684067E-01
  3.304620483399E-01  3.384407240350E-01  3.466120368761E-01  3.549806378944E-01
  3.635512904158E-01  3.723288727715E-01  3.813183810757E-01  3.905249320684E-01
  3.999537660283E-01  4.096102497553E-01  4.194998796254E-01  4.245338781809E-01
  4.296282847191E-01  4.347838241357E-01  4.400012300253E-01  4.452812447856E-01
  4.506246197230E-01  4.560321151597E-01  4.615045005416E-01  4.670425545481E-01
  4.726470652027E-01  4.783188299851E-01  4.840586559450E-01  4.898673598163E-01
  4.957457681341E-01  5.016947173517E-01  5.077150539599E-01  5.138076346074E-01
  5.199733262227E-01  5.262130061374E-01  5.325275622111E-01  5.389178929576E-01
  5.453849076731E-01  5.519295265652E-01  5.585526808839E-01  5.652553130546E-01
  5.720383768112E-01  5.789028373329E-01  5.858496713809E-01  5.928798674375E-01
  5.999944258468E-01  6.071943589569E-01  6.144806912644E-01  6.218544595596E-01
  6.293167130743E-01  6.368685136312E-01  6.445109357948E-01  6.522450670243E-01
  6.600720078286E-01  6.679928719225E-01  6.760087863856E-01  6.841208918222E-01
  6.923303425241E-01  7.006383066344E-01  7.090459663140E-01  7.175545179098E-01
  7.261651721247E-01  7.348791541902E-01  7.436977040405E-01  7.526220764889E-01
  7.616535414068E-01  7.707933839037E-01  7.800429045105E-01  7.894034193647E-01
  7.988762603970E-01  8.084627755218E-01  8.181643288281E-01  8.279823007740E-01
  8.379180883833E-01  8.479731054439E-01  8.581487827092E-01  8.684465681017E-01
  8.788679269189E-01  8.894143420420E-01  9.000873141465E-01  9.108883619162E-01
  9.218190222592E-01  9.328808505263E-01  9.440754207327E-01  9.554043257814E-01
  9.668691776908E-01  9.784716078231E-01  9.902132671170E-01  1.002095826322E+00
  1.014120976238E+00  1.026290427953E+00  1.038605913089E+00  1.051069184046E+00
  1.063682014254E+00  1.076446198425E+00  1.089363552806E+00  1.102435915440E+00
  1.115665146425E+00  1.129053128182E+00  1.142601765721E+00  1.156312986909E+00
  1.170188742752E+00  1.184231007665E+00  1.198441779757E+00  1.212823081114E+00
  1.227376958088E+00  1.242105481585E+00  1.257010747364E+00  1.272094876332E+00
  1.287360014848E+00  1.302808335026E+00  1.318442035046E+00  1.334263339467E+00
  1.350274499541E+00  1.366477793535E+00  1.382875527058E+00  1.399470033382E+00
  1.416263673783E+00  1.433258837868E+00  1.450457943923E+00  1.467863439250E+00
  1.485477800521E+00  1.503303534127E+00  1.521343176537E+00  1.539599294655E+00
  1.558074486191E+00  1.576771380025E+00  1.595692636585E+00  1.614840948224E+00
  1.634219039603E+00  1.653829668078E+00  1.673675624095E+00  1.693759731584E+00
  1.714084848363E+00  1.734653866544E+00  1.755469712942E+00  1.776535349498E+00
  1.797853773692E+00  1.819428018976E+00  1.841261155204E+00  1.863356289066E+00
  1.885716564535E+00  1.908345163309E+00  1.931245305269E+00  1.954420248932E+00
  1.977873291919E+00  2.001607771422E+00  2.025627064680E+00  2.049934589456E+00
  2.074533804529E+00  2.099428210183E+00  2.124621348706E+00  2.150116804890E+00
  2.175918206549E+00  2.202029225027E+00  2.228453575728E+00  2.255195018636E+00
  2.282257358860E+00  2.309644447166E+00  2.337360180532E+00  2.365408502699E+00
  2.393793404731E+00  2.422518925588E+00  2.451589152695E+00  2.481008222527E+00
  2.510780321198E+00  2.540909685052E+00  2.571400601273E+00  2.602257408488E+00
  2.633484497390E+00  2.665086311359E+00  2.697067347095E+00  2.729432155260E+00
  2.762185341123E+00  2.795331565217E+00  2.828875543999E+00  2.862822050527E+00
  2.897175915133E+00  2.931942026115E+00  2.967125330428E+00  3.002730834394E+00
  3.038763604406E+00  3.075228767659E+00  3.112131512871E+00  3.149477091026E+00
  3.187270816118E+00  3.225518065911E+00  3.264224282702E+00  3.303394974095E+00
  3.343035713784E+00  3.383152142349E+00  3.423749968057E+00  3.464834967674E+00
  3.506412987286E+00  3.548489943134E+00  3.591071822451E+00  3.634164684321E+00
  3.677774660532E+00  3.721907956459E+00  3.766570851936E+00  3.811769702160E+00
  3.857510938585E+00  3.903801069848E+00  3.950646682687E+00  3.998054442879E+00
  4.046031096193E+00  4.094583469348E+00  4.143718470980E+00  4.193443092632E+00
  4.243764409743E+00  4.294689582660E+00  4.346225857652E+00  4.398380567944E+00
  4.451161134759E+00  4.504575068376E+00  4.558629969197E+00  4.613333528827E+00
  4.668693531173E+00  4.724717853547E+00  4.781414467790E+00  4.838791441403E+00
  4.896856938700E+00  4.955619221965E+00  5.015086652628E+00  5.075267692460E+00
  5.136170904769E+00  5.197804955626E+00  5.260178615094E+00  5.323300758475E+00
  5.387180367577E+00  5.451826531988E+00  5.517248450372E+00  5.583455431776E+00
  5.650456896957E+00  5.718262379721E+00  5.786881528277E+00  5.856324106617E+00
  5.926599995896E+00  5.997719195847E+00  6.069691826197E+00  6.142528128111E+00
  6.216238465649E+00  6.290833327237E+00  6.366323327163E+00  6.442719207089E+00
  6.520031837574E+00  6.598272219625E+00  6.677451486261E+00  6.757580904096E+00
  6.838671874945E+00  6.920735937445E+00  7.003784768694E+00  7.087830185918E+00
  7.172884148149E+00  7.258958757927E+00  7.346066263022E+00  7.434219058178E+00
  7.523429686877E+00  7.613710843119E+00  7.705075373236E+00  7.797536277715E+00
  7.891106713048E+00  7.985799993604E+00  8.081629593528E+00  8.178609148650E+00
  8.276752458434E+00  8.376073487935E+00  8.476586369790E+00  8.578305406228E+00
  8.681245071102E+00  8.785420011956E+00  8.890845052099E+00  8.997535192724E+00
  9.105505615037E+00  9.214771682418E+00  9.325348942607E+00  9.437253129918E+00
  9.550500167477E+00  9.665106169487E+00  9.781087443520E+00  9.898460492843E+00
  1.001724201876E+01  1.013744892298E+01  1.025909831006E+01  1.038220748978E+01
  1.050679397966E+01  1.063287550741E+01  1.076047001350E+01  1.088959565366E+01
  1.102027080151E+01  1.115251405112E+01  1.128634421974E+01  1.142178035037E+01
  1.155884171458E+01  1.169754781515E+01  1.183791838894E+01  1.197997340960E+01
  1.212373309052E+01  1.226921788760E+01  1.241644850226E+01  1.256544588428E+01
  1.271623123489E+01  1.286882600971E+01  1.302325192183E+01  1.317953094489E+01
  1.333768531623E+01  1.349773754003E+01  1.365971039051E+01  1.382362691519E+01
  1.398951043817E+01  1.415738456343E+01  1.432727317819E+01  1.449920045633E+01
  1.467319086181E+01  1.484926915215E+01  1.502746038197E+01  1.520778990656E+01
  1.539028338544E+01  1.557496678606E+01  1.576186638750E+01  1.595100878415E+01
  1.614242088956E+01  1.633612994023E+01  1.653216349951E+01  1.673054946151E+01
  1.693131605504E+01  1.713449184771E+01  1.734010574988E+01  1.754818701888E+01
  1.775876526310E+01  1.797187044626E+01  1.818753289162E+01  1.840578328631E+01
  1.862665268575E+01  1.885017251798E+01  1.907637458820E+01  1.930529108325E+01
  1.953695457625E+01  1.977139803117E+01  2.000865480754E+01  2.024875866523E+01
  2.049174376921E+01  2.073764469445E+01  2.098649643078E+01  2.123833438795E+01
  2.149319440060E+01  2.175111273341E+01  2.201212608621E+01  2.227627159925E+01
  2.254358685844E+01  2.281410990074E+01  2.308787921955E+01  2.336493377018E+01
  2.364531297542E+01  2.392905673113E+01  2.421620541190E+01  2.450679987685E+01
  2.480088147537E+01  2.509849205307E+01  2.539967395771E+01  2.570447004520E+01
  2.601292368574E+01  2.632507876997E+01  2.664097971521E+01  2.696067147179E+01
  2.728419952946E+01  2.761160992381E+01  2.794294924290E+01  2.827826463381E+01
  2.861760380942E+01  2.896101505513E+01  2.930854723579E+01  2.966024980262E+01
  3.001617280025E+01  3.037636687385E+01  3.074088327634E+01  3.110977387566E+01
  3.148309116216E+01  3.186088825611E+01  3.224321891518E+01  3.263013754217E+01
  3.302169919267E+01  3.341795958298E+01  3.381897509798E+01  3.422480279916E+01
  3.463550043275E+01  3.505112643794E+01  3.547173995519E+01  3.589740083466E+01
  3.632816964467E+01  3.676410768041E+01  3.720527697257E+01  3.765174029624E+01
  3.810356117980E+01  3.856080391396E+01  3.902353356092E+01  3.949181596366E+01
  3.996571775522E+01  4.044530636828E+01  4.093065004470E+01  4.142181784524E+01
  4.191887965938E+01  4.242190621529E+01  4.293096908988E+01  4.344614071895E+01
  4.396749440758E+01
</grid-data>
</grid>
<valence-charge total-charge="6" is-unscreening-charge="yes"
 rescaled-to-z-pseudo="no">
<radfunc>
<data npts="457">
  6.293306800573E-01  6.293759915423E-01  6.295114473874E-01  6.297374573306E-01
  6.300691418942E-01  6.304924464749E-01  6.310320855156E-01  6.316502159617E-01
  6.323454892756E-01  6.331566252083E-01  6.340713504018E-01  6.350661189672E-01
  6.362690846893E-01  6.375263137948E-01  6.387831276605E-01  6.402318853098E-01
  6.419016385657E-01  6.434858412725E-01  6.452684812242E-01  6.472740894749E-01
  6.495301415781E-01  6.515358474171E-01  6.537388475411E-01  6.561581565692E-01
  6.588145384693E-01  6.617306495894E-01  6.649311893805E-01  6.675343454586E-01
  6.703247894966E-01  6.733155235210E-01  6.765203783716E-01  6.799540546917E-01
  6.836321639020E-01  6.875712687126E-01  6.917889226279E-01  6.963037077898E-01
  7.011352703761E-01  7.063043526217E-01  7.099486693758E-01  7.137594503099E-01
  7.177436847872E-01  7.219085920228E-01  7.262616216021E-01  7.308104530247E-01
  7.355629941396E-01  7.405273783217E-01  7.457119602235E-01  7.511253099254E-01
  7.567762052833E-01  7.626736222617E-01  7.688267230146E-01  7.752448414599E-01
  7.819374660695E-01  7.889142195732E-01  7.961848352524E-01  8.037591294708E-01
  8.116469700655E-01  8.198582401929E-01  8.284027971952E-01  8.372904260262E-01
  8.465307867442E-01  8.561333555525E-01  8.661073588400E-01  8.764616996473E-01
  8.872048759601E-01  8.983448902094E-01  9.098891493413E-01  9.158149957253E-01
  9.218443548061E-01  9.279779342233E-01  9.342163818116E-01  9.405602811947E-01
  9.470101471864E-01  9.535664209929E-01  9.602294652146E-01  9.669995586389E-01
  9.738768908244E-01  9.808615564681E-01  9.879535495557E-01  9.951527572887E-01
  1.002458953787E+00  1.009871793567E+00  1.017390804782E+00  1.025015382245E+00
  1.032744780209E+00  1.040578104918E+00  1.048514306933E+00  1.056552173219E+00
  1.064690319016E+00  1.072927179476E+00  1.081261001084E+00  1.089689832874E+00
  1.098211517424E+00  1.106823681663E+00  1.115523727488E+00  1.124308822205E+00
  1.133175888798E+00  1.142121596063E+00  1.151142348603E+00  1.160234276707E+00
  1.169393226147E+00  1.178614747902E+00  1.187894087840E+00  1.197226176391E+00
  1.206605618240E+00  1.216026682068E+00  1.225483290390E+00  1.234969009522E+00
  1.244477039725E+00  1.254000205574E+00  1.263530946594E+00  1.273061308233E+00
  1.282582933215E+00  1.292087053346E+00  1.301564481828E+00  1.311005606166E+00
  1.320400381720E+00  1.329738325999E+00  1.339008513771E+00  1.348199573065E+00
  1.357299682171E+00  1.366296567715E+00  1.375177503913E+00  1.383929313095E+00
  1.392538367613E+00  1.400990593224E+00  1.409271474061E+00  1.417366059300E+00
  1.425258971636E+00  1.432934417663E+00  1.440376200295E+00  1.447567733312E+00
  1.454492058159E+00  1.461131863095E+00  1.467469504799E+00  1.473487032537E+00
  1.479166214981E+00  1.484488569774E+00  1.489435395923E+00  1.493987809095E+00
  1.498126779880E+00  1.501833175080E+00  1.505087802065E+00  1.507871456223E+00
  1.510164971524E+00  1.511949274191E+00  1.513205439458E+00  1.513914751388E+00
  1.514058765670E+00  1.513619375334E+00  1.512578879266E+00  1.510920053398E+00
  1.508626224411E+00  1.505681345780E+00  1.502070075926E+00  1.497777858260E+00
  1.492791002820E+00  1.487096769225E+00  1.480683450581E+00  1.473540458004E+00
  1.465658405335E+00  1.457029193629E+00  1.447646094959E+00  1.437503835031E+00
  1.426598674099E+00  1.414928485614E+00  1.402492832044E+00  1.389293037243E+00
  1.375332254750E+00  1.360615531368E+00  1.345149865341E+00  1.328944258467E+00
  1.312009761428E+00  1.294359511649E+00  1.276008762973E+00  1.256974906453E+00
  1.237277481567E+00  1.216938177162E+00  1.195980821490E+00  1.174431360690E+00
  1.152317825132E+00  1.129670283085E+00  1.106520781208E+00  1.082903271467E+00
  1.058853524133E+00  1.034409026615E+00  1.009608868005E+00  9.844936093064E-01
  9.591051394780E-01  9.334865175514E-01  9.076818012639E-01  8.817358628095E-01
  8.556941925096E-01  8.296026914022E-01  8.035074539605E-01  7.774545423662E-01
  7.514897539862E-01  7.256583839150E-01  7.000049846646E-01  6.745731252794E-01
  6.494051523433E-01  6.245419555029E-01  6.000227402608E-01  5.758848108856E-01
  5.521633663268E-01  5.288913120198E-01  5.060990903948E-01  4.838145327778E-01
  4.620627351702E-01  4.408659601257E-01  4.202435666020E-01  4.002119692555E-01
  3.807846281713E-01  3.619720694863E-01  3.437819367772E-01  3.262190724638E-01
  3.092856278262E-01  2.929811995792E-01  2.773029902963E-01  2.622459893577E-01
  2.478031705219E-01  2.339657017255E-01  2.207231623063E-01  2.080637625581E-01
  1.959745603753E-01  1.844416697517E-01  1.734504560863E-01  1.629857136211E-01
  1.530318209159E-01  1.435728710512E-01  1.345927744806E-01  1.260753356930E-01
  1.180043099096E-01  1.103634480874E-01  1.031365437945E-01  9.630748471814E-02
  8.986029747348E-02  8.377918943785E-02  7.804858681177E-02  7.265316903199E-02
  6.757789966691E-02  6.280805392927E-02  5.832924294376E-02  5.412743490980E-02
  5.018897330084E-02  4.650059224281E-02  4.304942921434E-02  3.982303521223E-02
  3.680938252493E-02  3.399687025702E-02  3.137432774699E-02  2.893101602005E-02
  2.665662741685E-02  2.454128353779E-02  2.257553164108E-02  2.075033963091E-02
  1.905708976979E-02  1.748757124636E-02  1.603397172663E-02  1.468886801308E-02
  1.344521593171E-02  1.229633956248E-02  1.123591992332E-02  1.025798321273E-02
  9.356888709702E-03  8.527316423856E-03  7.764254582157E-03  7.062987032190E-03
  6.419080635245E-03  5.828372715916E-03  5.286958628287E-03  4.791179492289E-03
  4.337610147444E-03  3.923047365066E-03  3.544498354028E-03  3.199169589558E-03
  2.884455989166E-03  2.597930454751E-03  2.337333795265E-03  2.100565039983E-03
  1.885672148480E-03  1.690843119884E-03  1.514397500772E-03  1.354778288333E-03
  1.210544223010E-03  1.080362462829E-03  9.630016299242E-04  8.573252184916E-04
  7.622853523341E-04  6.769168794690E-04  6.003317907731E-04  5.317139493965E-04
  4.703141176173E-04  4.154452679065E-04  3.664781652076E-04  3.228372077600E-04
  2.839965142017E-04  2.494762451345E-04  2.188391478183E-04  1.916873131472E-04
  1.676591345499E-04  1.464264589271E-04  1.276919201909E-04  1.111864463940E-04
  9.666693182871E-05  8.391406584312E-05  7.273031044963E-05  6.293801911217E-05
  5.437768937510E-05  4.690634225953E-05  4.039602158886E-05  3.473240663897E-05
  2.981353171756E-05  2.554860648773E-05  2.185693105391E-05  1.866690002684E-05
  1.591508998349E-05  1.354542493743E-05  1.150841463583E-05  9.760460702301E-06
  8.263225850152E-06  6.983061597889E-06  5.890490128279E-06  4.959736142654E-06
  4.168304773265E-06  3.496601827199E-06  2.927592844817E-06  2.446497663008E-06
  2.040517377734E-06  1.698590800490E-06  1.411177698661E-06  1.170066299382E-06
  9.682027199108E-07  7.995401638995E-07  6.589058920030E-07  5.418841364333E-07
  4.447132821647E-07  3.641957822652E-07  2.976194111850E-07  2.426885877399E-07
  1.974646190421E-07  1.603138278779E-07  1.298626291845E-07  1.049587165812E-07
  8.463760763460E-08  6.809387700136E-08  5.465648013316E-08  4.376763721447E-08
  3.496480780445E-08  2.786534165911E-08  2.215344080234E-08  1.756911248096E-08
  1.389883255587E-08  1.096767451947E-08  8.632691043458E-09  6.777363092890E-09
  5.306956517027E-09  4.144647952259E-09  3.228301135665E-09  2.507791599475E-09
  1.942792447030E-09  1.500946731082E-09  1.156363078027E-09  8.883808212775E-10
  6.805592003687E-10  5.198523097965E-10  3.959375875995E-10  3.006708480166E-10
  2.276453012726E-10  1.718357699118E-10  1.293124967156E-10  9.701162493504E-11
  7.255168846993E-11  5.408733997880E-11  4.019312306112E-11  2.977140780101E-11
  2.197969797406E-11  1.617341831861E-11  1.186103171729E-11  8.668944809661E-12
  6.314158519290E-12  4.583025956348E-12  3.314809984522E-12  2.388999757254E-12
  1.715560926142E-12  1.227467357874E-12  8.750008539009E-13  6.214160074253E-13
  4.396552901479E-13  3.098691254466E-13  2.175506718127E-13  1.521382457379E-13
  1.059721427346E-13  7.351900028297E-14  5.079734442326E-14  3.495382267842E-14
  2.395184959931E-14  1.634377332188E-14  1.110484304726E-14  7.512716366958E-15
  5.060383325892E-15  3.393507396281E-15  2.265530809632E-15  1.505648098286E-15
  9.960601916136E-16  6.558918838139E-16  4.298720237962E-16  2.804024123929E-16
  1.820266746045E-16  1.175909323055E-16  7.559143940696E-17  4.835100821650E-17
  3.077134262231E-17  1.948358086316E-17  1.227286057728E-17  7.690428537483E-18
  4.793531378003E-18  2.971892287747E-18  1.832545588916E-18  1.123807924670E-18
  6.853553846943E-19  4.156198343575E-19  2.506125884027E-19  1.502464300676E-19
  8.955027545595E-20  0.000000000000E+00  0.000000000000E+00  0.000000000000E+00
  0.000000000000E+00  0.000000000000E+00  0.000000000000E+00  0.000000000000E+00
  0.000000000000E+00  0.000000000000E+00  0.000000000000E+00  0.000000000000E+00
  0.000000000000E+00  0.000000000000E+00  0.000000000000E+00  0.000000000000E+00
  0.000000000000E+00  0.000000000000E+00  0.000000000000E+00  0.000000000000E+00
  0.000000000000E+00  0.000000000000E+00  0.000000000000E+00  0.000000000000E+00
  0.000000000000E+00  0.000000000000E+00  0.000000000000E+00  0.000000000000E+00
  0.000000000000E+00  0.000000000000E+00  0.000000000000E+00  0.000000000000E+00
  0.000000000000E+00
</data>
</radfunc>
</valence-charge>
<pseudocore-charge matching-radius="1.24210548158"
 number-of-continuous-derivatives="4">
<annotation model-charge-form="Teter function with specified parameters" />
<radfunc>
<data npts="275">
  7.142174321574E+00  7.141979403980E+00  7.141396689974E+00  7.140424390015E+00
  7.138997403256E+00  7.137176121402E+00  7.134854105722E+00  7.132194071990E+00
  7.129201711389E+00  7.125710219790E+00  7.121772219816E+00  7.117488883396E+00
  7.112308045733E+00  7.106892298906E+00  7.101477098982E+00  7.095233330505E+00
  7.088035067855E+00  7.081203563508E+00  7.073513950595E+00  7.064859495097E+00
  7.055120470641E+00  7.046458691792E+00  7.036941110704E+00  7.026484438191E+00
  7.014997545041E+00  7.002380780284E+00  6.988525242319E+00  6.977249500829E+00
  6.965156135507E+00  6.952187370107E+00  6.938281578070E+00  6.923373062125E+00
  6.907391827147E+00  6.890263347126E+00  6.871908327385E+00  6.852242463469E+00
  6.831176198453E+00  6.808614480824E+00  6.792693001373E+00  6.776030879715E+00
  6.758595581499E+00  6.740353335554E+00  6.721269106778E+00  6.701306570737E+00
  6.680428090320E+00  6.658594694821E+00  6.635766061873E+00  6.611900502690E+00
  6.586954951127E+00  6.560884957102E+00  6.533644684994E+00  6.505186917663E+00
  6.475463066826E+00  6.444423190542E+00  6.412016018674E+00  6.378188987207E+00
  6.342888282417E+00  6.306058895937E+00  6.267644691836E+00  6.227588486903E+00
  6.185832145426E+00  6.142316689790E+00  6.096982428340E+00  6.049769101981E+00
  6.000616051084E+00  5.949462404336E+00  5.896247291180E+00  5.868847720829E+00
  5.840910079608E+00  5.812426869240E+00  5.783390641027E+00  5.753794005741E+00
  5.723629643993E+00  5.692890317116E+00  5.661568878568E+00  5.629658285864E+00
  5.597151613056E+00  5.564042063765E+00  5.530322984792E+00  5.495987880301E+00
  5.461030426597E+00  5.425444487510E+00  5.389224130379E+00  5.352363642663E+00
  5.314857549177E+00  5.276700629956E+00  5.237887938760E+00  5.198414822211E+00
  5.158276939578E+00  5.117470283203E+00  5.075991199553E+00  5.033836410922E+00
  4.991003037753E+00  4.947488621572E+00  4.903291148542E+00  4.858409073597E+00
  4.812841345159E+00  4.766587430402E+00  4.719647341046E+00  4.672021659660E+00
  4.623711566421E+00  4.574718866316E+00  4.525046016730E+00  4.474696155379E+00
  4.423673128546E+00  4.371981519546E+00  4.319626677379E+00  4.266614745489E+00
  4.212952690563E+00  4.158648331287E+00  4.103710366984E+00  4.048148406019E+00
  3.991972993898E+00  3.935195640940E+00  3.877828849404E+00  3.819886139965E+00
  3.761382077399E+00  3.702332295340E+00  3.642753519974E+00  3.582663592507E+00
  3.522081490259E+00  3.461027346202E+00  3.399522466783E+00  3.337589347841E+00
  3.275251688422E+00  3.212534402314E+00  3.149463627081E+00  3.086066730402E+00
  3.022372313484E+00  2.958410211354E+00  2.894211489779E+00  2.829808438618E+00
  2.765234561354E+00  2.700524560595E+00  2.635714319301E+00  2.570840877529E+00
  2.505942404456E+00  2.441058165476E+00  2.376228484150E+00  2.311494698816E+00
  2.246899113663E+00  2.182484944097E+00  2.118296256235E+00  2.054377900378E+00
  1.990775438358E+00  1.927535064643E+00  1.864703521147E+00  1.802328005688E+00
  1.740456074100E+00  1.679135536021E+00  1.618414344429E+00  1.558340479043E+00
  1.498961823733E+00  1.440326038168E+00  1.382480423938E+00  1.325471785495E+00
  1.269346286257E+00  1.214149300335E+00  1.159925260368E+00  1.106717502031E+00
  1.054568105848E+00  1.003517737007E+00  9.536054839333E-01  9.048686964627E-01
  8.573428245029E-01  8.110612581468E-01  7.660551702599E-01  7.223533626207E-01
  6.799821167466E-01  6.389650505836E-01  5.993229822797E-01  5.610738022925E-01
  5.242323551029E-01  4.888103318218E-01  4.548161749711E-01  4.222549967133E-01
  3.911285117700E-01  3.614349862320E-01  3.331692034009E-01  3.063224477249E-01
  2.808825078008E-01  2.568336992939E-01  2.341569085013E-01  2.128296571296E-01
  1.928261886854E-01  1.741175766940E-01  1.566718547498E-01  1.404541681829E-01
  1.254269468905E-01  1.115500986307E-01  9.878122181988E-02  8.707583661245E-02
  7.638763276941E-02  6.666873256217E-02  5.786996669362E-02  4.994116097033E-02
  4.283143122496E-02  3.648948377432E-02  3.086391851141E-02  2.590353157440E-02
  2.155761441730E-02  1.777624603176E-02  1.451057504130E-02  1.171308841249E-02
  9.337863606956E-03  7.340801134204E-03  5.679834662311E-03  4.315116099223E-03
  3.209173373164E-03  2.327039012236E-03  1.636348047476E-03  1.107404234225E-03
  7.132140962381E-04  4.294888362655E-04  2.346147150749E-04  1.095930658288E-04
  3.795166896279E-05  5.629749894594E-06  8.393631835878E-07  1.390637721386E-05
  3.709465852919E-05  6.441736100311E-05  9.143943996287E-05  1.150756251690E-04
  1.333880917833E-04  1.453879608958E-04  1.508445401766E-04  1.501058840814E-04
  1.439338192146E-04  1.333560556002E-04  1.195374044626E-04  1.036714671051E-04
  8.689347024608E-05  7.021422575132E-05  5.447451358748E-05  4.031855283658E-05
  2.818466263225E-05  1.831074653495E-05  1.075188017876E-05  5.407058176305E-06
  2.052071488879E-06  3.755431934448E-07  1.534393518835E-08  5.929260489277E-07
  1.743537992994E-06  3.140782735872E-06  4.514534485231E-06  5.661793845371E-06
  6.450607191227E-06  6.817667994621E-06  6.760625844450E-06  6.326428640821E-06
  5.597198433128E-06  4.675184469933E-06  3.668251248356E-06  2.677157885319E-06
  1.785590497672E-06  1.053551580701E-06  5.143247984253E-07  1.748572783249E-07
  1.907004885599E-08  1.335126500733E-08  1.133287659898E-07  2.709701323365E-07
  4.411195962877E-07  5.867396368596E-07  6.823577436171E-07  7.154943043611E-07
  6.861299754467E-07  6.045242380930E-07  4.878896431204E-07  3.565357041730E-07
  2.301115666571E-07  1.244999627211E-07  4.976224762654E-08
</data>
</radfunc>
</pseudocore-charge>
<semilocal-potentials set="scalar_relativistic">
<slps n="4" l="s" rc="2.93194202612" eref="-0.635300447773">
<radfunc>
<data npts="275">
 -2.259457340403E+00 -2.259540041093E+00 -2.259787260340E+00 -2.260199717767E+00
 -2.260804955090E+00 -2.261577251578E+00 -2.262561593485E+00 -2.263688833463E+00
 -2.264956401221E+00 -2.266434729808E+00 -2.268101246333E+00 -2.269912861486E+00
 -2.272102617690E+00 -2.274389962772E+00 -2.276675341832E+00 -2.279308250220E+00
 -2.282340797503E+00 -2.285216005491E+00 -2.288449078073E+00 -2.292083650103E+00
 -2.296168434477E+00 -2.299796713253E+00 -2.303778396771E+00 -2.308146828696E+00
 -2.312938274227E+00 -2.318192128908E+00 -2.323951132039E+00 -2.328629599606E+00
 -2.333639093987E+00 -2.339001774335E+00 -2.344741091811E+00 -2.350881835278E+00
 -2.357450173570E+00 -2.364473693250E+00 -2.371981430568E+00 -2.380003896176E+00
 -2.388573090942E+00 -2.397722510967E+00 -2.404161686840E+00 -2.410884987097E+00
 -2.417903424801E+00 -2.425228290929E+00 -2.432871145775E+00 -2.440843808231E+00
 -2.449158342771E+00 -2.457827043903E+00 -2.466862417876E+00 -2.476277161406E+00
 -2.486084137169E+00 -2.496296345819E+00 -2.506926894256E+00 -2.517988959883E+00
 -2.529495750567E+00 -2.541460460047E+00 -2.553896218475E+00 -2.566816037848E+00
 -2.580232752027E+00 -2.594158951102E+00 -2.608606909823E+00 -2.623588509883E+00
 -2.639115155814E+00 -2.655197684327E+00 -2.671846266910E+00 -2.689070305587E+00
 -2.706878321748E+00 -2.725277838022E+00 -2.744275253237E+00 -2.753999832978E+00
 -2.763875710556E+00 -2.773903309941E+00 -2.784082958960E+00 -2.794414884618E+00
 -2.804899208336E+00 -2.815535941095E+00 -2.826324978499E+00 -2.837266095756E+00
 -2.848358942585E+00 -2.859603038052E+00 -2.870997765343E+00 -2.882542366475E+00
 -2.894235936956E+00 -2.906077420408E+00 -2.918065603135E+00 -2.930199108676E+00
 -2.942476392329E+00 -2.954895735660E+00 -2.967455241015E+00 -2.980152826023E+00
 -2.992986218130E+00 -3.005952949141E+00 -3.019050349808E+00 -3.032275544461E+00
 -3.045625445691E+00 -3.059096749104E+00 -3.072685928156E+00 -3.086389229074E+00
 -3.100202665885E+00 -3.114122015551E+00 -3.128142813242E+00 -3.142260347736E+00
 -3.156469656975E+00 -3.170765523781E+00 -3.185142471744E+00 -3.199594761300E+00
 -3.214116385992E+00 -3.228701068951E+00 -3.243342259578E+00 -3.258033130465E+00
 -3.272766574539E+00 -3.287535202448E+00 -3.302331340205E+00 -3.317147027070E+00
 -3.331974013708E+00 -3.346803760602E+00 -3.361627436729E+00 -3.376435918515E+00
 -3.391219789045E+00 -3.405969337547E+00 -3.420674559140E+00 -3.435325154835E+00
 -3.449910531792E+00 -3.464419803822E+00 -3.478841792125E+00 -3.493165026242E+00
 -3.507377745234E+00 -3.521467899021E+00 -3.535423149972E+00 -3.549230874511E+00