<?xml version="1.0" encoding="UTF-8" ?>
<psml version="1.1" energy_unit="hartree" length_unit="bohr"
 uuid="48fa3620-37d2-11ec-52d8-6d88f4ff1843"
 xmlns="http://esl.cecam.org/PSML/ns/1.1">
<provenance creator="ONCVPSP-3.3.1+psml-3.3.1-75 (fully-relativistic)"
 date="2021-10-28">
<annotation action="semilocal-pseudopotential-generation"
 action-cont="projectors-generation" />
<input-file name="oncvpsp-input">
<![CDATA[# ATOM AND REFERENCE CONFIGURATION
# atsym, z, nc, nv, iexc   psfile
    Se  34.0   6   2   4   upf
#
# n, l, f  (nc+nv lines)
    1    0    2.0
    2    0    2.0
    2    1    6.0
    3    0    2.0
    3    1    6.0
    3    2   10.0
    4    0    2.0
    4    1    4.0
#
# PSEUDOPOTENTIAL AND OPTIMIZATION
# lmax
    2
#
# l, rc, ep, ncon, nbas, qcut  (lmax+1 lines, l's must be in order)
    0    2.90    0.00    5    8    4.50
    1    3.00    0.00    5    8    4.00
    2    3.10    0.10    5    8    4.00
#
# LOCAL POTENTIAL
# lloc, lpopt, rc(5), dvloc0
    4    3    2.8    0.0
#
# VANDERBILT-KLEINMAN-BYLANDER PROJECTORs
# l, nproj, debl  (lmax+1 lines, l's in order)
    0    2    1.00
    1    2    0.90
    2    2    0.90
#
# MODEL CORE CHARGE
# icmod, fcfact, rfact
    3    4.5134    1.3753
#
# LOG DERIVATIVE ANALYSIS
# epsh1, epsh2, depsh
   -2.0  2.0  0.02
#
# OUTPUT GRID
# rlmax, drl
    5.0  0.01
#
# TEST CONFIGURATIONS
# ncnf
    4
#
#   nvcnf (repeated ncnf times)
#   n, l, f  (nvcnf lines, repeated follwing nvcnf's ncnf times)
    2
    4    0    2.0
    4    1    3.0
#
    2
    4    0    2.0
    4    1    2.0
#
    2
    4    0    1.0
    4    1    4.0
#
    2
    4    0    1.0
    4    1    3.0
]]>
</input-file>
</provenance>
<pseudo-atom-spec atomic-label="Se" atomic-number="34" z-pseudo="6"
 flavor="Hamann&apos;s oncvpsp" relativity="dirac" spin-dft="no"
 core-corrections="yes">
<annotation pseudo-energy="-9.50300988058" cutoff_hint_low="8"
 cutoff_hint_normal="9" cutoff_hint_high="9" />
<exchange-correlation>
<annotation oncvpsp-xc-code="4" oncvpsp-xc-type="GGA -- Perdew-Burke-Ernzerhof" />
<libxc-info number-of-functionals="2">
<functional name="Perdew, Burke &amp; Ernzerhof (GGA)" type="exchange" id="101" />
<functional name="Perdew, Burke &amp; Ernzerhof (GGA)" type="correlation"
 id="130" />
</libxc-info>
</exchange-correlation>
<valence-configuration total-valence-charge="6">
<shell n="4" l="s" occupation="2" />
<shell n="4" l="p" occupation="4" />
</valence-configuration>
</pseudo-atom-spec>
<grid npts="457">
<annotation type="sampled from oncvpsp log grid"
 recipe="r(i:1..N) = r1*exp(a*(i-1)) + r=0; resampled"
 recipe-cont="r1: scale; a: step" scale="0.147058823529E-04"
 step="0.119285708653E-01" delta="0.500000000000E-02" rmax="43.9674944076" />
<grid-data>
  0.000000000000E+00  5.020670286226E-03  1.002839488868E-02  1.504419146530E-02
  2.027130297145E-02  2.542795312469E-02  3.077510917124E-02  3.593736782770E-02
  4.097622089294E-02  4.616757116937E-02  5.139982494270E-02  5.654650141804E-02
  6.220851581082E-02  6.762595753660E-02  7.264345683615E-02  7.803322885668E-02
  8.382289432527E-02  8.897443012385E-02  9.444256583582E-02  1.002467588636E-01
  1.064076624107E-01  1.116079041230E-01  1.170622864982E-01  1.227832296276E-01
  1.287837605838E-01  1.350775430848E-01  1.416789086070E-01  1.468407994265E-01
  1.521907571722E-01  1.577356338231E-01  1.634825310017E-01  1.694388090690E-01
  1.756120965512E-01  1.820102999105E-01  1.886416136706E-01  1.955145309126E-01
  2.026378541519E-01  2.100207066126E-01  2.150914465530E-01  2.202846144386E-01
  2.256031661696E-01  2.310501290136E-01  2.366286033285E-01  2.423417643273E-01
  2.481928638852E-01  2.541852323908E-01  2.603222806417E-01  2.666075017855E-01
  2.730444733086E-01  2.796368590722E-01  2.863884113976E-01  2.933029732024E-01
  3.003844801874E-01  3.076369630770E-01  3.150645499135E-01  3.226714684067E-01
  3.304620483399E-01  3.384407240350E-01  3.466120368761E-01  3.549806378944E-01
  3.635512904158E-01  3.723288727715E-01  3.813183810757E-01  3.905249320684E-01
  3.999537660283E-01  4.096102497553E-01  4.194998796254E-01  4.245338781809E-01
  4.296282847191E-01  4.347838241357E-01  4.400012300253E-01  4.452812447856E-01
  4.506246197230E-01  4.560321151597E-01  4.615045005416E-01  4.670425545481E-01
  4.726470652027E-01  4.783188299851E-01  4.840586559450E-01  4.898673598163E-01
  4.957457681341E-01  5.016947173517E-01  5.077150539599E-01  5.138076346074E-01
  5.199733262227E-01  5.262130061374E-01  5.325275622111E-01  5.389178929576E-01
  5.453849076731E-01  5.519295265652E-01  5.585526808839E-01  5.652553130546E-01
  5.720383768112E-01  5.789028373329E-01  5.858496713809E-01  5.928798674375E-01
  5.999944258468E-01  6.071943589569E-01  6.144806912644E-01  6.218544595596E-01
  6.293167130743E-01  6.368685136312E-01  6.445109357948E-01  6.522450670243E-01
  6.600720078286E-01  6.679928719225E-01  6.760087863856E-01  6.841208918222E-01
  6.923303425241E-01  7.006383066344E-01  7.090459663140E-01  7.175545179098E-01
  7.261651721247E-01  7.348791541902E-01  7.436977040405E-01  7.526220764889E-01
  7.616535414068E-01  7.707933839037E-01  7.800429045105E-01  7.894034193647E-01
  7.988762603970E-01  8.084627755218E-01  8.181643288281E-01  8.279823007740E-01
  8.379180883833E-01  8.479731054439E-01  8.581487827092E-01  8.684465681017E-01
  8.788679269189E-01  8.894143420420E-01  9.000873141465E-01  9.108883619162E-01
  9.218190222592E-01  9.328808505263E-01  9.440754207327E-01  9.554043257814E-01
  9.668691776908E-01  9.784716078231E-01  9.902132671170E-01  1.002095826322E+00
  1.014120976238E+00  1.026290427953E+00  1.038605913089E+00  1.051069184046E+00
  1.063682014254E+00  1.076446198425E+00  1.089363552806E+00  1.102435915440E+00
  1.115665146425E+00  1.129053128182E+00  1.142601765721E+00  1.156312986909E+00
  1.170188742752E+00  1.184231007665E+00  1.198441779757E+00  1.212823081114E+00
  1.227376958088E+00  1.242105481585E+00  1.257010747364E+00  1.272094876332E+00
  1.287360014848E+00  1.302808335026E+00  1.318442035046E+00  1.334263339467E+00
  1.350274499541E+00  1.366477793535E+00  1.382875527058E+00  1.399470033382E+00
  1.416263673783E+00  1.433258837868E+00  1.450457943923E+00  1.467863439250E+00
  1.485477800521E+00  1.503303534127E+00  1.521343176537E+00  1.539599294655E+00
  1.558074486191E+00  1.576771380025E+00  1.595692636585E+00  1.614840948224E+00
  1.634219039603E+00  1.653829668078E+00  1.673675624095E+00  1.693759731584E+00
  1.714084848363E+00  1.734653866544E+00  1.755469712942E+00  1.776535349498E+00
  1.797853773692E+00  1.819428018976E+00  1.841261155204E+00  1.863356289066E+00
  1.885716564535E+00  1.908345163309E+00  1.931245305269E+00  1.954420248932E+00
  1.977873291919E+00  2.001607771422E+00  2.025627064680E+00  2.049934589456E+00
  2.074533804529E+00  2.099428210183E+00  2.124621348706E+00  2.150116804890E+00
  2.175918206549E+00  2.202029225027E+00  2.228453575728E+00  2.255195018636E+00
  2.282257358860E+00  2.309644447166E+00  2.337360180532E+00  2.365408502699E+00
  2.393793404731E+00  2.422518925588E+00  2.451589152695E+00  2.481008222527E+00
  2.510780321198E+00  2.540909685052E+00  2.571400601273E+00  2.602257408488E+00
  2.633484497390E+00  2.665086311359E+00  2.697067347095E+00  2.729432155260E+00
  2.762185341123E+00  2.795331565217E+00  2.828875543999E+00  2.862822050527E+00
  2.897175915133E+00  2.931942026115E+00  2.967125330428E+00  3.002730834394E+00
  3.038763604406E+00  3.075228767659E+00  3.112131512871E+00  3.149477091026E+00
  3.187270816118E+00  3.225518065911E+00  3.264224282702E+00  3.303394974095E+00
  3.343035713784E+00  3.383152142349E+00  3.423749968057E+00  3.464834967674E+00
  3.506412987286E+00  3.548489943134E+00  3.591071822451E+00  3.634164684321E+00
  3.677774660532E+00  3.721907956459E+00  3.766570851936E+00  3.811769702160E+00
  3.857510938585E+00  3.903801069848E+00  3.950646682687E+00  3.998054442879E+00
  4.046031096193E+00  4.094583469348E+00  4.143718470980E+00  4.193443092632E+00
  4.243764409743E+00  4.294689582660E+00  4.346225857652E+00  4.398380567944E+00
  4.451161134759E+00  4.504575068376E+00  4.558629969197E+00  4.613333528827E+00
  4.668693531173E+00  4.724717853547E+00  4.781414467790E+00  4.838791441403E+00
  4.896856938700E+00  4.955619221965E+00  5.015086652628E+00  5.075267692460E+00
  5.136170904769E+00  5.197804955626E+00  5.260178615094E+00  5.323300758475E+00
  5.387180367577E+00  5.451826531988E+00  5.517248450372E+00  5.583455431776E+00
  5.650456896957E+00  5.718262379721E+00  5.786881528277E+00  5.856324106617E+00
  5.926599995896E+00  5.997719195847E+00  6.069691826197E+00  6.142528128111E+00
  6.216238465649E+00  6.290833327237E+00  6.366323327163E+00  6.442719207089E+00
  6.520031837574E+00  6.598272219625E+00  6.677451486261E+00  6.757580904096E+00
  6.838671874945E+00  6.920735937445E+00  7.003784768694E+00  7.087830185918E+00
  7.172884148149E+00  7.258958757927E+00  7.346066263022E+00  7.434219058178E+00
  7.523429686877E+00  7.613710843119E+00  7.705075373236E+00  7.797536277715E+00
  7.891106713048E+00  7.985799993604E+00  8.081629593528E+00  8.178609148650E+00
  8.276752458434E+00  8.376073487935E+00  8.476586369790E+00  8.578305406228E+00
  8.681245071102E+00  8.785420011956E+00  8.890845052099E+00  8.997535192724E+00
  9.105505615037E+00  9.214771682418E+00  9.325348942607E+00  9.437253129918E+00
  9.550500167477E+00  9.665106169487E+00  9.781087443520E+00  9.898460492843E+00
  1.001724201876E+01  1.013744892298E+01  1.025909831006E+01  1.038220748978E+01
  1.050679397966E+01  1.063287550741E+01  1.076047001350E+01  1.088959565366E+01
  1.102027080151E+01  1.115251405112E+01  1.128634421974E+01  1.142178035037E+01
  1.155884171458E+01  1.169754781515E+01  1.183791838894E+01  1.197997340960E+01
  1.212373309052E+01  1.226921788760E+01  1.241644850226E+01  1.256544588428E+01
  1.271623123489E+01  1.286882600971E+01  1.302325192183E+01  1.317953094489E+01
  1.333768531623E+01  1.349773754003E+01  1.365971039051E+01  1.382362691519E+01
  1.398951043817E+01  1.415738456343E+01  1.432727317819E+01  1.449920045633E+01
  1.467319086181E+01  1.484926915215E+01  1.502746038197E+01  1.520778990656E+01
  1.539028338544E+01  1.557496678606E+01  1.576186638750E+01  1.595100878415E+01
  1.614242088956E+01  1.633612994023E+01  1.653216349951E+01  1.673054946151E+01
  1.693131605504E+01  1.713449184771E+01  1.734010574988E+01  1.754818701888E+01
  1.775876526310E+01  1.797187044626E+01  1.818753289162E+01  1.840578328631E+01
  1.862665268575E+01  1.885017251798E+01  1.907637458820E+01  1.930529108325E+01
  1.953695457625E+01  1.977139803117E+01  2.000865480754E+01  2.024875866523E+01
  2.049174376921E+01  2.073764469445E+01  2.098649643078E+01  2.123833438795E+01
  2.149319440060E+01  2.175111273341E+01  2.201212608621E+01  2.227627159925E+01
  2.254358685844E+01  2.281410990074E+01  2.308787921955E+01  2.336493377018E+01
  2.364531297542E+01  2.392905673113E+01  2.421620541190E+01  2.450679987685E+01
  2.480088147537E+01  2.509849205307E+01  2.539967395771E+01  2.570447004520E+01
  2.601292368574E+01  2.632507876997E+01  2.664097971521E+01  2.696067147179E+01
  2.728419952946E+01  2.761160992381E+01  2.794294924290E+01  2.827826463381E+01
  2.861760380942E+01  2.896101505513E+01  2.930854723579E+01  2.966024980262E+01
  3.001617280025E+01  3.037636687385E+01  3.074088327634E+01  3.110977387566E+01
  3.148309116216E+01  3.186088825611E+01  3.224321891518E+01  3.263013754217E+01
  3.302169919267E+01  3.341795958298E+01  3.381897509798E+01  3.422480279916E+01
  3.463550043275E+01  3.505112643794E+01  3.547173995519E+01  3.589740083466E+01
  3.632816964467E+01  3.676410768041E+01  3.720527697257E+01  3.765174029624E+01
  3.810356117980E+01  3.856080391396E+01  3.902353356092E+01  3.949181596366E+01
  3.996571775522E+01  4.044530636828E+01  4.093065004470E+01  4.142181784524E+01
  4.191887965938E+01  4.242190621529E+01  4.293096908988E+01  4.344614071895E+01
  4.396749440758E+01
</grid-data>
</grid>
<valence-charge total-charge="6" is-unscreening-charge="yes"
 rescaled-to-z-pseudo="no">
<radfunc>
<data npts="457">
  6.282956958194E-01  6.283410445644E-01  6.284766118003E-01  6.287028075964E-01
  6.290347648999E-01  6.294584175377E-01  6.299985002560E-01  6.306171388667E-01
  6.313129837046E-01  6.321247863221E-01  6.330402632390E-01  6.340358491838E-01
  6.352398031843E-01  6.364980649469E-01  6.377559109239E-01  6.392058580581E-01
  6.408769819091E-01  6.424624846570E-01  6.442465871086E-01  6.462538403004E-01
  6.485117421402E-01  6.505190919160E-01  6.527238971006E-01  6.551451877233E-01
  6.578037445561E-01  6.607222422545E-01  6.639254001945E-01  6.665306848140E-01
  6.693234096157E-01  6.723165870614E-01  6.755240590722E-01  6.789605380483E-01
  6.826416478723E-01  6.865839644487E-01  6.908050552354E-01  6.953235171122E-01
  7.001590118014E-01  7.053322979083E-01  7.089795766781E-01  7.127934533511E-01
  7.167809227692E-01  7.209492097954E-01  7.253057698313E-01  7.298582883601E-01
  7.346146793796E-01  7.395830825747E-01  7.447718590664E-01  7.501895855555E-01
  7.558450466642E-01  7.617472252609E-01  7.679052905315E-01  7.743285835425E-01
  7.810266000182E-01  7.880089700294E-01  7.952854342694E-01  8.028658165656E-01
  8.107599922483E-01  8.189778519715E-01  8.275292605522E-01  8.364240103652E-01
  8.456717688018E-01  8.552820192731E-01  8.652639952093E-01  8.756266064811E-01
  8.863783576443E-01  8.975272573868E-01  9.090807185412E-01  9.150112863582E-01
  9.210454480125E-01  9.271839117471E-01  9.334273259647E-01  9.397762748193E-01
  9.462312736144E-01  9.527927640038E-01  9.594611089895E-01  9.662365877137E-01
  9.731193900384E-01  9.801096109116E-01  9.872072445135E-01  9.944121781813E-01
  1.001724186110E+00  1.009142922822E+00  1.016667916417E+00  1.024298561575E+00
  1.032034112346E+00  1.039873674695E+00  1.047816198820E+00  1.055860471243E+00
  1.064005106671E+00  1.072248539632E+00  1.080589015898E+00  1.089024583689E+00
  1.097553084667E+00  1.106172144748E+00  1.114879164702E+00  1.123671310599E+00
  1.132545504076E+00  1.141498412463E+00  1.150526438777E+00  1.159625711597E+00
  1.168792074860E+00  1.178021077579E+00  1.187307963526E+00  1.196647660900E+00
  1.206034772013E+00  1.215463563039E+00  1.224927953840E+00  1.234421507939E+00
  1.243937422655E+00  1.253468519473E+00  1.263007234682E+00  1.272545610342E+00
  1.282075285642E+00  1.291587488698E+00  1.301073028878E+00  1.310522289697E+00
  1.319925222379E+00  1.329271340150E+00  1.338549713348E+00  1.347748965431E+00
  1.356857269978E+00  1.365862348768E+00  1.374751471036E+00  1.383511454009E+00
  1.392128664814E+00  1.400589023866E+00  1.408878009855E+00  1.416980666414E+00
  1.424881610603E+00  1.432565043309E+00  1.440014761667E+00  1.447214173628E+00
  1.454146314763E+00  1.460793867431E+00  1.467139182402E+00  1.473164303038E+00
  1.478850992129E+00  1.484180761482E+00  1.489134904330E+00  1.493694530652E+00
  1.497840605457E+00  1.501553990099E+00  1.504815486659E+00  1.507605885417E+00
  1.509906015447E+00  1.511696798313E+00  1.512959304864E+00  1.513674815070E+00
  1.513824880859E+00  1.513391391858E+00  1.512356643939E+00  1.510703410445E+00
  1.508415015916E+00  1.505475412170E+00  1.501869256482E+00  1.497581991654E+00
  1.492599927686E+00  1.486910324743E+00  1.480501477095E+00  1.473362797648E+00
  1.465484902685E+00  1.456859696361E+00  1.447480454514E+00  1.437341907288E+00
  1.426440320042E+00  1.414773571990E+00  1.402341232010E+00  1.389144630988E+00
  1.375186930092E+00  1.360473184313E+00  1.345010400602E+00  1.328807589926E+00
  1.311875812546E+00  1.294228215803E+00  1.275880063724E+00  1.256848757729E+00
  1.237153847755E+00  1.216817033114E+00  1.195862152418E+00  1.174315161966E+00
  1.152204101977E+00  1.129559050144E+00  1.106412062023E+00  1.082797097839E+00
  1.058749935376E+00  1.034308068715E+00  1.009510592681E+00  9.843980729908E-01
  9.590124022185E-01  9.333966418582E-01  9.075948509059E-01  8.816519015816E-01
  8.556132829856E-01  8.295248936931E-01  8.034328244961E-01  7.773831327204E-01
  7.514216097631E-01  7.255935437166E-01  6.999434791561E-01  6.745149763693E-01
  6.493503724912E-01  6.244905471678E-01  5.999746954991E-01  5.758401111038E-01
  5.521219821934E-01  5.288532035341E-01  5.060642071104E-01  4.837828141726E-01
  4.620341111522E-01  4.408403516619E-01  4.202208864537E-01  4.001921228025E-01
  3.807675143043E-01  3.619575815479E-01  3.437699635290E-01  3.262094990597E-01
  3.092783367711E-01  2.929760716547E-01  2.772999054369E-01  2.622448274628E-01
  2.478038121928E-01  2.339680289193E-01  2.207270589007E-01  2.080691148278E-01
  1.959812573787E-01  1.844496036345E-01  1.734595223078E-01  1.629958111118E-01
  1.530428521775E-01  1.435847422096E-01  1.346053953056E-01  1.260886195992E-01
  1.180181739472E-01  1.103778129361E-01  1.031513337663E-01  9.632262775499E-02
  8.987572513909E-02  8.379483690469E-02  7.806439284273E-02  7.266907595597E-02
  6.759385334783E-02  6.282400372781E-02  5.834514167155E-02  5.414323877573E-02
  5.020464184935E-02  4.651608828401E-02  4.306471874628E-02  3.983808733537E-02
  3.682416934933E-02  3.401136680266E-02  3.138851183788E-02  2.894486817277E-02
  2.667013072439E-02  2.455442354934E-02  2.258829623881E-02  2.076271890456E-02
  1.906907588990E-02  1.749915833702E-02  1.604515573862E-02  1.469964659817E-02
  1.345558831885E-02  1.230630643642E-02  1.124548330651E-02  1.026714635073E-02
  9.365655960733E-03  8.535693152698E-03  7.772247058786E-03  7.070602335255E-03
  6.426326560546E-03  5.835257689912E-03  5.293491626637E-03  4.797369963342E-03
  4.343467940574E-03  3.928582663691E-03  3.549721613128E-03  3.204091477485E-03
  2.889087333517E-03  2.602282192083E-03  2.341416924410E-03  2.104390578749E-03
  1.889251093523E-03  1.694186409552E-03  1.517515980745E-03  1.357682679908E-03
  1.213245093892E-03  1.082870200317E-03  9.653264164007E-04  8.594770091447E-04
  7.642738550500E-04  6.787515368529E-04  6.020217642601E-04  5.332681054217E-04
  4.717410158148E-04  4.167531513068E-04  3.676749523968E-04  3.239304869590E-04
  2.849935392141E-04  2.503839331029E-04  2.196640787166E-04  1.924357309281E-04
  1.683369498543E-04  1.470392532541E-04  1.282449514184E-04  1.116846555310E-04
  9.711495087943E-05  8.431622665390E-05  7.309065441231E-05  6.326030759435E-05
  5.466541475167E-05  4.716273941980E-05  4.062407980175E-05  3.493488166175E-05
  2.999295804077E-05  2.570730961735E-05  2.199703973909E-05  1.879035835055E-05
  1.602366924211E-05  1.364073524427E-05  1.159191619244E-05  9.833474690156E-06
  8.326944903560E-06  7.038559827043E-06  5.938732668767E-06  5.001588214761E-06
  4.204540240748E-06  3.527911250984E-06  2.954591032267E-06  2.469730717929E-06
  2.060469260263E-06  1.715689409381E-06  1.425800491297E-06  1.182545467144E-06
  9.788299383515E-07  8.085709385195E-07  6.665635214055E-07  5.483633152081E-07
  4.501833661317E-07  3.688037386908E-07  3.014924763248E-07  2.459366535967E-07
  2.001823705906E-07  1.625826512283E-07  1.317523102712E-07  1.065289489910E-07
  8.593932716248E-08  6.917043945257E-08  5.554469781016E-08  4.449868843880E-08
  3.556503275114E-08  2.835693673032E-08  2.255506274985E-08  1.789640250960E-08
  1.416486970926E-08  1.118336676865E-08  8.807111671360E-09  6.918039194619E-09
  5.420115718494E-09  4.235428786912E-09  3.300931910576E-09  2.565742025839E-09
  1.988901804306E-09  1.537531876137E-09  1.185309198061E-09  9.112174591893E-10
  6.985237505648E-10  5.339428884171E-10  4.069569206107E-10  3.092625908495E-10
  2.343240017899E-10  1.770115098112E-10  1.333110924787E-10  1.000911357279E-10
  7.491586276713E-11  5.589653306437E-11  4.157313207129E-11  3.082059789032E-11
  2.277473095170E-11  1.677384230650E-11  1.231294576726E-11  9.007914860627E-12
  6.567529582689E-12  4.771749112184E-12  3.454880881824E-12  2.492587171479E-12
  1.791888948849E-12  1.283502477969E-12  9.159851020051E-13  6.512791052864E-13
  4.613320601002E-13  3.255430034797E-13  2.288398063437E-13  1.602371633635E-13
  1.117591638337E-13  7.763735972096E-14  5.371620679183E-14  3.701398767415E-14
  2.539984763832E-14  1.735719415752E-14  1.181107214010E-14  8.002735529577E-15
  5.398891920710E-15  3.626312624804E-15  2.424920083688E-15  1.614277014730E-15
  1.069753519796E-15  7.056522254605E-16  4.633136046265E-16  3.027697360068E-16
  1.969148077265E-16  1.274523736867E-16  8.209107667967E-17  5.261347301522E-17
  3.355252357463E-17  2.128896337888E-17  1.343873616576E-17  8.439374053823E-18
  5.272092183217E-18  3.276040809424E-18  2.024796253355E-18  1.244660242808E-18
  7.609025299811E-19  4.625797604562E-19  2.796362752999E-19  1.680809799045E-19
  1.004451683119E-19  0.000000000000E+00  0.000000000000E+00  0.000000000000E+00
  0.000000000000E+00  0.000000000000E+00  0.000000000000E+00  0.000000000000E+00
  0.000000000000E+00  0.000000000000E+00  0.000000000000E+00  0.000000000000E+00
  0.000000000000E+00  0.000000000000E+00  0.000000000000E+00  0.000000000000E+00
  0.000000000000E+00  0.000000000000E+00  0.000000000000E+00  0.000000000000E+00
  0.000000000000E+00  0.000000000000E+00  0.000000000000E+00  0.000000000000E+00
  0.000000000000E+00  0.000000000000E+00  0.000000000000E+00  0.000000000000E+00
  0.000000000000E+00  0.000000000000E+00  0.000000000000E+00  0.000000000000E+00
  0.000000000000E+00
</data>
</radfunc>
</valence-charge>
<pseudocore-charge matching-radius="1.24210548158"
 number-of-continuous-derivatives="4">
<annotation model-charge-form="Teter function with specified parameters" />
<radfunc>
<data npts="275">
  7.148020884187E+00  7.147825807034E+00  7.147242616020E+00  7.146269520139E+00
  7.144841365253E+00  7.143018592503E+00  7.140694676028E+00  7.138032464800E+00
  7.135037654662E+00  7.131543304938E+00  7.127602081329E+00  7.123315238583E+00
  7.118130159901E+00  7.112709979760E+00  7.107290346969E+00  7.101041467362E+00
  7.093837312237E+00  7.087000215640E+00  7.079304308032E+00  7.070642768023E+00
  7.060895771231E+00  7.052226901876E+00  7.042701529724E+00  7.032236297410E+00
  7.020740001124E+00  7.008112908321E+00  6.994246028253E+00  6.982961056475E+00
  6.970857791561E+00  6.957878409968E+00  6.943961234690E+00  6.929040514679E+00
  6.913046197510E+00  6.895903696166E+00  6.877533651060E+00  6.857851688727E+00
  6.836768178929E+00  6.814187992345E+00  6.798253479619E+00  6.781577718397E+00
  6.764128147698E+00  6.745870968705E+00  6.726771117636E+00  6.706792240323E+00
  6.685896668845E+00  6.664045400593E+00  6.641198080194E+00  6.617312984735E+00
  6.592347012818E+00  6.566255677974E+00  6.538993107060E+00  6.510512044286E+00
  6.480763861593E+00  6.449698576159E+00  6.417264875877E+00  6.383410153702E+00
  6.348080551860E+00  6.311221016955E+00  6.272775367101E+00  6.232686372278E+00
  6.190895849183E+00  6.147344771925E+00  6.101973399984E+00  6.054721424937E+00
  6.005528137499E+00  5.954332616528E+00  5.901073941639E+00  5.873651942082E+00
  5.845691431191E+00  5.817184904551E+00  5.788124907369E+00  5.758504044366E+00
  5.728314990160E+00  5.697550500162E+00  5.666203421978E+00  5.634266707358E+00
  5.601733424685E+00  5.568596772015E+00  5.534850090705E+00  5.500486879599E+00
  5.465500809828E+00  5.429885740198E+00  5.393635733190E+00  5.356745071588E+00
  5.319208275726E+00  5.281020121365E+00  5.242175658215E+00  5.202670229090E+00
  5.162499489707E+00  5.121659429124E+00  5.080146390820E+00  5.037957094405E+00
  4.995088657964E+00  4.951538621012E+00  4.907304968062E+00  4.862386152785E+00
  4.816781122740E+00  4.770489344666E+00  4.723510830293E+00  4.675846162666E+00
  4.627496522929E+00  4.578463717546E+00  4.528750205913E+00  4.478359128315E+00
  4.427294334184E+00  4.375560410587E+00  4.323162710903E+00  4.270107383603E+00
  4.216401401079E+00  4.162052588417E+00  4.107069652060E+00  4.051462208239E+00
  3.995240811093E+00  3.938416980363E+00  3.881003228542E+00  3.823013087374E+00
  3.764461133557E+00  3.705363013522E+00  3.645735467148E+00  3.585596350246E+00
  3.524964655669E+00  3.463860532872E+00  3.402305305743E+00  3.340321488534E+00
  3.277932799692E+00  3.215164173400E+00  3.152041768619E+00  3.088592975429E+00
  3.024846418452E+00  2.960831957135E+00  2.896580682678E+00  2.832124911371E+00
  2.767498174124E+00  2.702735201951E+00  2.637871907187E+00  2.572945360209E+00
  2.507993761439E+00  2.443056408415E+00  2.378173657705E+00  2.313386881487E+00
  2.248738418580E+00  2.184271519768E+00  2.120030287237E+00  2.056059608005E+00
  1.992405081198E+00  1.929112939102E+00  1.866229961892E+00  1.803803386022E+00
  1.741880806255E+00  1.680510071366E+00  1.619739173588E+00  1.559616131915E+00
  1.500188869415E+00  1.441505084770E+00  1.383612118293E+00  1.326556812748E+00
  1.270385369343E+00  1.215143199334E+00  1.160874771729E+00  1.107623457680E+00
  1.055431372157E+00  1.004339213636E+00  9.543861025403E-01  9.056094192808E-01
  8.580446427838E-01  8.117251904754E-01  7.666822607390E-01  7.229446789304E-01
  6.805387480807E-01  6.394881054696E-01  5.998135862868E-01  5.615330956348E-01
  5.246614901463E-01  4.892104705025E-01  4.551884861364E-01  4.226006533951E-01
  3.914486884040E-01  3.617308558345E-01  3.334419347178E-01  3.065732023677E-01
  2.811124373846E-01  2.570439425946E-01  2.343485886487E-01  2.130038788526E-01
  1.929840356287E-01  1.742601088234E-01  1.568001058631E-01  1.405691435464E-01
  1.255296210154E-01  1.116414132089E-01  9.886208383365E-02  8.714711663278E-02
  7.645016345792E-02  6.672330738794E-02  5.791733887588E-02  4.998204265586E-02
  4.286649290691E-02  3.651935395698E-02  3.088918362312E-02  2.592473612815E-02
  2.157526141621E-02  1.779079761378E-02  1.452245335478E-02  1.172267671176E-02
  9.345507554273E-03  7.346810292134E-03  5.684484158037E-03  4.318648440401E-03
  3.211800392923E-03  2.328943919436E-03  1.637687557111E-03  1.108310752031E-03
  7.137979311716E-04  4.298404145468E-04  2.348067699814E-04  1.096827783858E-04
  3.798273608589E-05  5.634358391078E-06  8.400502837882E-07  1.391776093280E-05
  3.712502410610E-05  6.447009286283E-05  9.151429201589E-05  1.151698257328E-04
  1.334972828777E-04  1.455069750473E-04  1.509680210676E-04  1.502287603108E-04
  1.440516430100E-04  1.334652204699E-04  1.196352574256E-04  1.037563322591E-04
  8.696460098185E-05  7.027170290725E-05  5.451910626194E-05  4.035155748376E-05
  2.820773451308E-05  1.832573565749E-05  1.076068163582E-05  5.411484378013E-06
  2.053751308483E-06  3.758506119836E-07  1.535649568796E-08  5.934114164242E-07
  1.744965247998E-06  3.143353771258E-06  4.518230069706E-06  5.666428572938E-06
  6.455887639048E-06  6.823248917321E-06  6.766160072617E-06  6.331607436451E-06
  5.601780283083E-06  4.679011562006E-06  3.671254067895E-06  2.679349398785E-06
  1.787052176732E-06  1.054414014885E-06  5.147458231724E-07  1.750004159718E-07
  1.908565954114E-08  1.336219431308E-08  1.134215365798E-07  2.711919476792E-07
  4.414806954745E-07  5.872199401776E-07  6.829163196323E-07  7.160800058662E-07
  6.866916393996E-07  6.050190998325E-07  4.882890281282E-07  3.568275632378E-07
  2.302999352998E-07  1.246018780195E-07  4.980298285413E-08
</data>
</radfunc>
</pseudocore-charge>
<semilocal-potentials set="lj">
<slps n="4" l="s" j="0.5" rc="2.93194202612" eref="-0.635120201277">
<radfunc>
<data npts="275">
 -2.255925014542E+00 -2.256007881279E+00 -2.256255596899E+00 -2.256668882418E+00
 -2.257275334764E+00 -2.258049181448E+00 -2.259035498855E+00 -2.260165000673E+00
 -2.261435111270E+00 -2.262916404736E+00 -2.264586262578E+00 -2.266401508783E+00
 -2.268595652310E+00 -2.270887578318E+00 -2.273177532406E+00 -2.275815709101E+00
 -2.278854321127E+00 -2.281735276017E+00 -2.284974807094E+00 -2.288616634999E+00
 -2.292709568134E+00 -2.296345079757E+00 -2.300334694966E+00 -2.304711822198E+00
 -2.309512796858E+00 -2.314777090474E+00 -2.320547524428E+00 -2.325235269033E+00
 -2.330254687846E+00 -2.335627982019E+00 -2.341378646964E+00 -2.347531518085E+00
 -2.354112813092E+00 -2.361150169774E+00 -2.368672677962E+00 -2.376710904226E+00
 -2.385296907649E+00 -2.394464244774E+00 -2.400916011996E+00 -2.407652443047E+00
 -2.414684570394E+00 -2.422023704766E+00 -2.429681426518E+00 -2.437669574884E+00
 -2.446000234911E+00 -2.454685721876E+00 -2.463738562933E+00 -2.473171475785E+00
 -2.482997344113E+00 -2.493229189526E+00 -2.503880139747E+00 -2.514963392788E+00
 -2.526492176825E+00 -2.538479705497E+00 -2.550939128349E+00 -2.563883476142E+00
 -2.577325600761E+00 -2.591278109435E+00 -2.605753293046E+00 -2.620763048253E+00
 -2.636318793250E+00 -2.652431376937E+00 -2.669110981360E+00 -2.686367017301E+00
 -2.704208012929E+00 -2.722641495506E+00 -2.741673866165E+00 -2.751416294594E+00
 -2.761310267863E+00 -2.771356209497E+00 -2.781554446696E+00 -2.791905205658E+00
 -2.802408606806E+00 -2.813064659928E+00 -2.823873259239E+00 -2.834834178349E+00
 -2.845947065175E+00 -2.857211436765E+00 -2.868626674069E+00 -2.880192016648E+00
 -2.891906557331E+00 -2.903769236825E+00 -2.915778838294E+00 -2.927933981899E+00
 -2.940233119322E+00 -2.952674528275E+00 -2.965256307005E+00 -2.977976368804E+00
 -2.990832436530E+00 -3.003822037161E+00 -3.016942496375E+00 -3.030190933183E+00
 -3.043564254613E+00 -3.057059150466E+00 -3.070672088153E+00 -3.084399307616E+00
 -3.098236816363E+00 -3.112180384605E+00 -3.126225540534E+00 -3.140367565725E+00
 -3.154601490700E+00 -3.168922090652E+00 -3.183323881333E+00 -3.197801115144E+00
 -3.212347777402E+00 -3.226957582830E+00 -3.241623972249E+00 -3.256340109503E+00
 -3.271098878622E+00 -3.285892881210E+00 -3.300714434104E+00 -3.315555567269E+00
 -3.330408021966E+00 -3.345263249176E+00 -3.360112408293E+00 -3.374946366090E+00
 -3.389755695943E+00 -3.404530677330E+00 -3.419261295592E+00 -3.433937241949E+00
 -3.448547913777E+00 -3.463082415115E+00 -3.477529557427E+00 -3.491877860566E+00
 -3.506115553969E+00 -3.520230578008E+00 -3.534210585605E+00 -3.548042943839E+00